# Field extents   
# Reference position: (0.0000000000e+00 0.0000000000e+00 0.0000000000e+00)
# Threshold       : 5.0000000000e-01
# Time            	alpha_internal    
0.00011976        (0.0000000000e+00 0.0000000000e+00 0.0000000000e+00) (0.0000000000e+00 0.0000000000e+00 0.0000000000e+00)
0.00026382        (1.2708333335e-01 9.9375000000e-01 1.0050000000e+00) (6.2291666665e-01 9.9791666665e-01 1.0050000000e+00)
0.000436945       (1.2708333335e-01 9.9375000000e-01 1.0050000000e+00) (6.2291666665e-01 9.9791666665e-01 1.0050000000e+00)
0.000645062       (1.2708333335e-01 9.9375000000e-01 1.0050000000e+00) (6.2291666665e-01 9.9791666665e-01 1.0050000000e+00)
0.000893202       (1.2708333335e-01 9.9375000000e-01 1.0050000000e+00) (6.2291666665e-01 9.9791666665e-01 1.0050000000e+00)
0.00119175        (1.2708333335e-01 9.9375000000e-01 1.0050000000e+00) (6.2291666665e-01 9.9791666665e-01 1.0050000000e+00)
0.00154662        (1.2708333335e-01 9.9375000000e-01 1.0050000000e+00) (6.2291666665e-01 9.9791666665e-01 1.0050000000e+00)
0.00197577        (1.2708333335e-01 9.9375000000e-01 1.0050000000e+00) (6.2291666665e-01 9.9791666665e-01 1.0050000000e+00)
0.00249075        (1.2708333335e-01 9.9375000000e-01 1.0050000000e+00) (6.2291666665e-01 9.9791666665e-01 1.0050000000e+00)
0.00311608        (1.2708333335e-01 9.9375000000e-01 1.0050000000e+00) (6.2291666665e-01 9.9791666665e-01 1.0050000000e+00)
0.00385016        (1.2708333335e-01 9.9375000000e-01 1.0050000000e+00) (6.2291666665e-01 9.9791666665e-01 1.0050000000e+00)
0.00447131        (1.2708333335e-01 9.9375000000e-01 1.0050000000e+00) (6.2291666665e-01 9.9791666665e-01 1.0050000000e+00)
0.00517716        (1.2708333335e-01 9.9375000000e-01 1.0050000000e+00) (6.2291666665e-01 9.9791666665e-01 1.0050000000e+00)
0.00600065        (1.2708333335e-01 9.9375000000e-01 1.0050000000e+00) (6.2291666665e-01 9.9791666665e-01 1.0050000000e+00)
0.00693394        (1.2708333335e-01 9.9375000000e-01 1.0050000000e+00) (6.2291666665e-01 9.9791666665e-01 1.0050000000e+00)
0.00793902        (1.2708333335e-01 9.9375000000e-01 1.0050000000e+00) (6.2291666665e-01 9.9791666665e-01 1.0050000000e+00)
0.0089441         (1.2708333335e-01 9.9375000000e-01 1.0050000000e+00) (6.2291666665e-01 9.9791666665e-01 1.0050000000e+00)
0.00994918        (1.2708333335e-01 9.9375000000e-01 1.0050000000e+00) (6.2291666665e-01 9.9791666665e-01 1.0050000000e+00)
0.0109543         (1.2708333335e-01 9.9375000000e-01 1.0050000000e+00) (6.2291666665e-01 9.9791666665e-01 1.0050000000e+00)
0.0119593         (1.2708333335e-01 9.9375000000e-01 1.0050000000e+00) (6.2291666665e-01 9.9791666665e-01 1.0050000000e+00)
0.0129644         (1.2708333335e-01 9.9375000000e-01 1.0050000000e+00) (6.2291666665e-01 9.9791666665e-01 1.0050000000e+00)
0.0139695         (1.2708333335e-01 9.9375000000e-01 1.0050000000e+00) (6.2291666665e-01 9.9791666665e-01 1.0050000000e+00)
0.0149746         (1.2708333335e-01 9.9375000000e-01 1.0050000000e+00) (6.2291666665e-01 9.9791666665e-01 1.0050000000e+00)
0.0159797         (1.2708333335e-01 9.9375000000e-01 1.0050000000e+00) (6.2291666665e-01 9.9791666665e-01 1.0050000000e+00)
0.0169848         (1.2708333335e-01 9.9375000000e-01 1.0050000000e+00) (6.2291666665e-01 9.9791666665e-01 1.0050000000e+00)
0.0179898         (1.2708333335e-01 9.9375000000e-01 1.0050000000e+00) (6.2291666665e-01 9.9791666665e-01 1.0050000000e+00)
0.0189949         (1.2708333335e-01 9.9375000000e-01 1.0050000000e+00) (6.2291666665e-01 9.9791666665e-01 1.0050000000e+00)
0.02              (1.2708333335e-01 9.9375000000e-01 1.0050000000e+00) (6.2291666665e-01 9.9791666665e-01 1.0050000000e+00)
0.021             (1.2708333335e-01 9.9375000000e-01 1.0050000000e+00) (6.2291666665e-01 9.9791666665e-01 1.0050000000e+00)
0.022             (1.2708333335e-01 9.9375000000e-01 1.0050000000e+00) (6.2291666665e-01 9.9791666665e-01 1.0050000000e+00)
0.023             (1.2708333335e-01 9.9375000000e-01 1.0050000000e+00) (6.2291666665e-01 9.9791666665e-01 1.0050000000e+00)
0.024             (1.2708333335e-01 9.9375000000e-01 1.0050000000e+00) (6.2291666665e-01 9.9791666665e-01 1.0050000000e+00)
0.025             (1.2708333335e-01 9.9375000000e-01 1.0050000000e+00) (6.2291666665e-01 9.9791666665e-01 1.0050000000e+00)
0.026             (1.2708333335e-01 9.9375000000e-01 1.0050000000e+00) (6.2291666665e-01 9.9791666665e-01 1.0050000000e+00)
0.027             (1.2708333335e-01 9.9375000000e-01 1.0050000000e+00) (6.2291666665e-01 9.9791666665e-01 1.0050000000e+00)
0.028             (1.2708333335e-01 9.9375000000e-01 1.0050000000e+00) (6.2291666665e-01 9.9791666665e-01 1.0050000000e+00)
0.029             (1.2708333335e-01 9.9375000000e-01 1.0050000000e+00) (6.2291666665e-01 9.9791666665e-01 1.0050000000e+00)
0.03              (1.2708333335e-01 9.9375000000e-01 1.0050000000e+00) (6.2291666665e-01 9.9791666665e-01 1.0050000000e+00)
0.031             (1.2708333335e-01 9.9375000000e-01 1.0050000000e+00) (6.2291666665e-01 9.9791666665e-01 1.0050000000e+00)
0.032             (1.2708333335e-01 9.9375000000e-01 1.0050000000e+00) (6.2291666665e-01 9.9791666665e-01 1.0050000000e+00)
0.033             (1.2708333335e-01 9.9375000000e-01 1.0050000000e+00) (6.2291666665e-01 9.9791666665e-01 1.0050000000e+00)
0.034             (1.2708333335e-01 9.9375000000e-01 1.0050000000e+00) (6.2291666665e-01 9.9791666665e-01 1.0050000000e+00)
0.035             (1.2708333335e-01 9.9375000000e-01 1.0050000000e+00) (6.2291666665e-01 9.9791666665e-01 1.0050000000e+00)
0.036             (1.2708333335e-01 9.9375000000e-01 1.0050000000e+00) (6.2291666665e-01 9.9791666665e-01 1.0050000000e+00)
0.037             (1.2708333335e-01 9.9375000000e-01 1.0050000000e+00) (6.2291666665e-01 9.9791666665e-01 1.0050000000e+00)
0.038             (1.2708333335e-01 9.9375000000e-01 1.0050000000e+00) (6.2291666665e-01 9.9791666665e-01 1.0050000000e+00)
0.039             (1.2708333335e-01 9.9375000000e-01 1.0050000000e+00) (6.2291666665e-01 9.9791666665e-01 1.0050000000e+00)
0.04              (1.2708333335e-01 9.9375000000e-01 1.0050000000e+00) (6.2291666665e-01 9.9791666665e-01 1.0050000000e+00)
0.041             (1.2708333335e-01 9.9375000000e-01 1.0050000000e+00) (6.2291666665e-01 9.9791666665e-01 1.0050000000e+00)
0.042             (1.2708333335e-01 9.9375000000e-01 1.0050000000e+00) (6.2291666665e-01 9.9791666665e-01 1.0050000000e+00)
0.043             (1.2708333335e-01 9.9375000000e-01 1.0050000000e+00) (6.2291666665e-01 9.9791666665e-01 1.0050000000e+00)
0.044             (1.2708333335e-01 9.9375000000e-01 1.0050000000e+00) (6.2291666665e-01 9.9791666665e-01 1.0050000000e+00)
0.045             (1.2708333335e-01 9.9375000000e-01 1.0050000000e+00) (6.2291666665e-01 9.9791666665e-01 1.0050000000e+00)
0.046             (1.2708333335e-01 9.9375000000e-01 1.0050000000e+00) (6.2291666665e-01 9.9791666665e-01 1.0050000000e+00)
0.047             (1.2708333335e-01 9.9375000000e-01 1.0050000000e+00) (6.2291666665e-01 9.9791666665e-01 1.0050000000e+00)
0.048             (1.2708333335e-01 9.9375000000e-01 1.0050000000e+00) (6.2291666665e-01 9.9791666665e-01 1.0050000000e+00)
0.049             (1.2708333335e-01 9.9375000000e-01 1.0050000000e+00) (6.2291666665e-01 9.9791666665e-01 1.0050000000e+00)
0.05              (1.2708333335e-01 9.9375000000e-01 1.0050000000e+00) (6.2291666665e-01 9.9791666665e-01 1.0050000000e+00)
0.051             (1.2708333335e-01 9.9375000000e-01 1.0050000000e+00) (6.2291666665e-01 9.9791666665e-01 1.0050000000e+00)
0.052             (1.2708333335e-01 9.9375000000e-01 1.0050000000e+00) (6.2291666665e-01 9.9791666665e-01 1.0050000000e+00)
0.053             (1.2708333335e-01 9.9375000000e-01 1.0050000000e+00) (6.2291666665e-01 9.9791666665e-01 1.0050000000e+00)
0.054             (1.2708333335e-01 9.9375000000e-01 1.0050000000e+00) (6.2291666665e-01 9.9791666665e-01 1.0050000000e+00)
0.055             (1.2708333335e-01 9.9375000000e-01 1.0050000000e+00) (6.2291666665e-01 9.9791666665e-01 1.0050000000e+00)
0.056             (1.2708333335e-01 9.9375000000e-01 1.0050000000e+00) (6.2291666665e-01 9.9791666665e-01 1.0050000000e+00)
0.057             (1.2708333335e-01 9.9375000000e-01 1.0050000000e+00) (6.2291666665e-01 9.9791666665e-01 1.0050000000e+00)
0.058             (1.2708333335e-01 9.9375000000e-01 1.0050000000e+00) (6.2291666665e-01 9.9791666665e-01 1.0050000000e+00)
0.059             (1.2708333335e-01 9.8958333335e-01 1.0050000000e+00) (6.2291666665e-01 9.9791666665e-01 1.0050000000e+00)
0.06              (1.2708333335e-01 9.8958333335e-01 1.0050000000e+00) (6.2291666665e-01 9.9791666665e-01 1.0050000000e+00)
0.061             (1.2708333335e-01 9.8958333335e-01 1.0050000000e+00) (6.2291666665e-01 9.9791666665e-01 1.0050000000e+00)
0.062             (1.2708333335e-01 9.8958333335e-01 1.0050000000e+00) (6.2291666665e-01 9.9791666665e-01 1.0050000000e+00)
0.063             (1.2708333335e-01 9.8958333335e-01 1.0050000000e+00) (6.2291666665e-01 9.9791666665e-01 1.0050000000e+00)
0.064             (1.2708333335e-01 9.8958333335e-01 1.0050000000e+00) (6.2291666665e-01 9.9791666665e-01 1.0050000000e+00)
0.065             (1.2708333335e-01 9.8958333335e-01 1.0050000000e+00) (6.2291666665e-01 9.9791666665e-01 1.0050000000e+00)
0.066             (1.2708333335e-01 9.8958333335e-01 1.0050000000e+00) (6.2291666665e-01 9.9791666665e-01 1.0050000000e+00)
0.067             (1.2708333335e-01 9.8958333335e-01 1.0050000000e+00) (6.2291666665e-01 9.9791666665e-01 1.0050000000e+00)
0.068             (1.2708333335e-01 9.8958333335e-01 1.0050000000e+00) (6.2291666665e-01 9.9791666665e-01 1.0050000000e+00)
0.0688            (1.2708333335e-01 9.8958333335e-01 1.0050000000e+00) (6.2291666665e-01 9.9791666665e-01 1.0050000000e+00)
0.0697333         (1.2708333335e-01 9.8958333335e-01 1.0050000000e+00) (6.2291666665e-01 9.9791666665e-01 1.0050000000e+00)
0.07076           (1.2708333335e-01 9.8958333335e-01 1.0050000000e+00) (6.2291666665e-01 9.9791666665e-01 1.0050000000e+00)
0.07153           (1.2708333335e-01 9.8958333335e-01 1.0050000000e+00) (6.2291666665e-01 9.9791666665e-01 1.0050000000e+00)
0.072377          (1.2708333335e-01 9.8958333335e-01 1.0050000000e+00) (6.2291666665e-01 9.9791666665e-01 1.0050000000e+00)
0.0733299         (1.2708333335e-01 9.8958333335e-01 1.0050000000e+00) (6.2291666665e-01 9.9791666665e-01 1.0050000000e+00)
0.0742828         (1.2708333335e-01 9.8958333335e-01 1.0050000000e+00) (6.2291666665e-01 9.9791666665e-01 1.0050000000e+00)
0.0752356         (1.2708333335e-01 9.8541666665e-01 1.0050000000e+00) (6.2291666665e-01 9.9791666665e-01 1.0050000000e+00)
0.0761885         (1.2708333335e-01 9.8541666665e-01 1.0050000000e+00) (6.2291666665e-01 9.9791666665e-01 1.0050000000e+00)
0.0771414         (1.2708333335e-01 9.8541666665e-01 1.0050000000e+00) (6.2291666665e-01 9.9791666665e-01 1.0050000000e+00)
0.0780943         (1.2708333335e-01 9.8541666665e-01 1.0050000000e+00) (6.2291666665e-01 9.9791666665e-01 1.0050000000e+00)
0.0790471         (1.2708333335e-01 9.8541666665e-01 1.0050000000e+00) (6.2291666665e-01 9.9791666665e-01 1.0050000000e+00)
0.08              (1.2708333335e-01 9.8541666665e-01 1.0050000000e+00) (6.2291666665e-01 9.9791666665e-01 1.0050000000e+00)
0.081             (1.2708333335e-01 9.8541666665e-01 1.0050000000e+00) (6.2291666665e-01 9.9791666665e-01 1.0050000000e+00)
0.0818261         (1.2708333335e-01 9.8541666665e-01 1.0050000000e+00) (6.2291666665e-01 9.9791666665e-01 1.0050000000e+00)
0.0826163         (1.2708333335e-01 9.8541666665e-01 1.0050000000e+00) (6.2291666665e-01 9.9791666665e-01 1.0050000000e+00)
0.0834854         (1.2708333335e-01 9.8541666665e-01 1.0050000000e+00) (6.2291666665e-01 9.9791666665e-01 1.0050000000e+00)
0.0841206         (1.2708333335e-01 9.8541666665e-01 1.0050000000e+00) (6.2291666665e-01 9.9791666665e-01 1.0050000000e+00)
0.0848424         (1.2708333335e-01 9.8541666665e-01 1.0050000000e+00) (6.2291666665e-01 9.9791666665e-01 1.0050000000e+00)
0.0856402         (1.2708333335e-01 9.8541666665e-01 1.0050000000e+00) (6.2291666665e-01 9.9791666665e-01 1.0050000000e+00)
0.0862929         (1.2708333335e-01 9.8541666665e-01 1.0050000000e+00) (6.2291666665e-01 9.9791666665e-01 1.0050000000e+00)
0.0870143         (1.2708333335e-01 9.8541666665e-01 1.0050000000e+00) (6.2291666665e-01 9.9791666665e-01 1.0050000000e+00)
0.0878259         (1.2708333335e-01 9.8541666665e-01 1.0050000000e+00) (6.2291666665e-01 9.9791666665e-01 1.0050000000e+00)
0.0884056         (1.2708333335e-01 9.8541666665e-01 1.0050000000e+00) (6.2291666665e-01 9.9791666665e-01 1.0050000000e+00)
0.0890498         (1.2708333335e-01 9.8541666665e-01 1.0050000000e+00) (6.2291666665e-01 9.9791666665e-01 1.0050000000e+00)
0.0896261         (1.2708333335e-01 9.8541666665e-01 1.0050000000e+00) (6.2291666665e-01 9.9791666665e-01 1.0050000000e+00)
0.0902745         (1.2708333335e-01 9.8125000000e-01 1.0050000000e+00) (6.2291666665e-01 9.9791666665e-01 1.0050000000e+00)
0.0910226         (1.2708333335e-01 9.8125000000e-01 1.0050000000e+00) (6.2291666665e-01 9.9791666665e-01 1.0050000000e+00)
0.0917132         (1.2708333335e-01 9.8125000000e-01 1.0050000000e+00) (6.2291666665e-01 9.9791666665e-01 1.0050000000e+00)
0.0923506         (1.2708333335e-01 9.8125000000e-01 1.0050000000e+00) (6.2291666665e-01 9.9791666665e-01 1.0050000000e+00)
0.0929881         (1.2708333335e-01 9.8125000000e-01 1.0050000000e+00) (6.2291666665e-01 9.9791666665e-01 1.0050000000e+00)
0.0936893         (1.2708333335e-01 9.8125000000e-01 1.0050000000e+00) (6.2291666665e-01 9.9791666665e-01 1.0050000000e+00)
0.0943904         (1.2708333335e-01 9.8125000000e-01 1.0050000000e+00) (6.2291666665e-01 9.9791666665e-01 1.0050000000e+00)
0.0950916         (1.2708333335e-01 9.8125000000e-01 1.0050000000e+00) (6.2291666665e-01 9.9791666665e-01 1.0050000000e+00)
0.0959097         (1.2708333335e-01 9.8125000000e-01 1.0050000000e+00) (6.2291666665e-01 9.9791666665e-01 1.0050000000e+00)
0.0965914         (1.2708333335e-01 9.8125000000e-01 1.0050000000e+00) (6.2291666665e-01 9.9791666665e-01 1.0050000000e+00)
0.0974436         (1.2708333335e-01 9.8125000000e-01 1.0050000000e+00) (6.2291666665e-01 9.9791666665e-01 1.0050000000e+00)
0.0980827         (1.2708333335e-01 9.8125000000e-01 1.0050000000e+00) (6.2291666665e-01 9.9791666665e-01 1.0050000000e+00)
0.0987218         (1.2708333335e-01 9.8125000000e-01 1.0050000000e+00) (6.2291666665e-01 9.9791666665e-01 1.0050000000e+00)
0.0993609         (1.2708333335e-01 9.8125000000e-01 1.0050000000e+00) (6.2291666665e-01 9.9791666665e-01 1.0050000000e+00)
0.1               (1.2708333335e-01 9.8125000000e-01 1.0050000000e+00) (6.2291666665e-01 9.9791666665e-01 1.0050000000e+00)
0.100714          (1.2708333335e-01 9.8125000000e-01 1.0050000000e+00) (6.2291666665e-01 9.9791666665e-01 1.0050000000e+00)
0.101317          (1.2708333335e-01 9.8125000000e-01 1.0050000000e+00) (6.2291666665e-01 9.9791666665e-01 1.0050000000e+00)
0.101984          (1.2708333335e-01 9.8125000000e-01 1.0050000000e+00) (6.2291666665e-01 9.9791666665e-01 1.0050000000e+00)
0.102735          (1.2708333335e-01 9.7708333335e-01 1.0050000000e+00) (6.2291666665e-01 9.9791666665e-01 1.0050000000e+00)
0.103598          (1.2708333335e-01 9.7708333335e-01 1.0050000000e+00) (6.2291666665e-01 9.9791666665e-01 1.0050000000e+00)
0.104379          (1.2708333335e-01 9.7708333335e-01 1.0050000000e+00) (6.2291666665e-01 9.9791666665e-01 1.0050000000e+00)
0.105058          (1.2708333335e-01 9.7708333335e-01 1.0050000000e+00) (6.2291666665e-01 9.9791666665e-01 1.0050000000e+00)
0.105805          (1.2708333335e-01 9.7708333335e-01 1.0050000000e+00) (6.2291666665e-01 9.9791666665e-01 1.0050000000e+00)
0.106451          (1.2708333335e-01 9.7708333335e-01 1.0050000000e+00) (6.2291666665e-01 9.9791666665e-01 1.0050000000e+00)
0.10704           (1.2708333335e-01 9.7708333335e-01 1.0050000000e+00) (6.2291666665e-01 9.9791666665e-01 1.0050000000e+00)
0.107688          (1.2708333335e-01 9.7708333335e-01 1.0050000000e+00) (6.2291666665e-01 9.9791666665e-01 1.0050000000e+00)
0.108412          (1.2708333335e-01 9.7708333335e-01 1.0050000000e+00) (6.2291666665e-01 9.9791666665e-01 1.0050000000e+00)
0.10924           (1.2708333335e-01 9.7708333335e-01 1.0050000000e+00) (6.2291666665e-01 9.9791666665e-01 1.0050000000e+00)
0.110067          (1.2708333335e-01 9.7708333335e-01 1.0050000000e+00) (6.2291666665e-01 9.9791666665e-01 1.0050000000e+00)
0.110777          (1.2708333335e-01 9.7708333335e-01 1.0050000000e+00) (6.2291666665e-01 9.9791666665e-01 1.0050000000e+00)
0.111486          (1.2708333335e-01 9.7708333335e-01 1.0050000000e+00) (6.2291666665e-01 9.9791666665e-01 1.0050000000e+00)
0.11226           (1.2708333335e-01 9.7708333335e-01 1.0050000000e+00) (6.2291666665e-01 9.9791666665e-01 1.0050000000e+00)
0.112905          (1.2708333335e-01 9.7708333335e-01 1.0050000000e+00) (6.2291666665e-01 9.9791666665e-01 1.0050000000e+00)
0.113615          (1.2708333335e-01 9.7291666665e-01 1.0050000000e+00) (6.2291666665e-01 9.9791666665e-01 1.0050000000e+00)
0.114324          (1.2708333335e-01 9.7291666665e-01 1.0050000000e+00) (6.2291666665e-01 9.9791666665e-01 1.0050000000e+00)
0.114955          (1.2708333335e-01 9.7291666665e-01 1.0050000000e+00) (6.2291666665e-01 9.9791666665e-01 1.0050000000e+00)
0.115515          (1.2708333335e-01 9.7291666665e-01 1.0050000000e+00) (6.2291666665e-01 9.9791666665e-01 1.0050000000e+00)
0.116156          (1.2708333335e-01 9.7291666665e-01 1.0050000000e+00) (6.2291666665e-01 9.9791666665e-01 1.0050000000e+00)
0.116797          (1.2708333335e-01 9.7291666665e-01 1.0050000000e+00) (6.2291666665e-01 9.9791666665e-01 1.0050000000e+00)
0.117331          (1.2708333335e-01 9.7291666665e-01 1.0050000000e+00) (6.2291666665e-01 9.9791666665e-01 1.0050000000e+00)
0.117998          (1.2708333335e-01 9.7291666665e-01 1.0050000000e+00) (6.2291666665e-01 9.9791666665e-01 1.0050000000e+00)
0.118665          (1.2708333335e-01 9.7291666665e-01 1.0050000000e+00) (6.2291666665e-01 9.9791666665e-01 1.0050000000e+00)
0.119333          (1.2708333335e-01 9.7291666665e-01 1.0050000000e+00) (6.2291666665e-01 9.9791666665e-01 1.0050000000e+00)
0.12              (1.2708333335e-01 9.7291666665e-01 1.0050000000e+00) (6.2291666665e-01 9.9791666665e-01 1.0050000000e+00)
0.12069           (1.2708333335e-01 9.7291666665e-01 1.0050000000e+00) (6.2291666665e-01 9.9791666665e-01 1.0050000000e+00)
0.121258          (1.2708333335e-01 9.7291666665e-01 1.0050000000e+00) (6.2291666665e-01 9.9791666665e-01 1.0050000000e+00)
0.121862          (1.2708333335e-01 9.7291666665e-01 1.0050000000e+00) (6.2291666665e-01 9.9791666665e-01 1.0050000000e+00)
0.122534          (1.2708333335e-01 9.7291666665e-01 1.0050000000e+00) (6.2291666665e-01 9.9791666665e-01 1.0050000000e+00)
0.123293          (1.2708333335e-01 9.7291666665e-01 1.0050000000e+00) (6.2291666665e-01 9.9791666665e-01 1.0050000000e+00)
0.124129          (1.2708333335e-01 9.6875000000e-01 1.0050000000e+00) (6.2291666665e-01 9.9791666665e-01 1.0050000000e+00)
0.124819          (1.2708333335e-01 9.6875000000e-01 1.0050000000e+00) (6.2291666665e-01 9.9791666665e-01 1.0050000000e+00)
0.125479          (1.2708333335e-01 9.6875000000e-01 1.0050000000e+00) (6.2291666665e-01 9.9791666665e-01 1.0050000000e+00)
0.126205          (1.2708333335e-01 9.6875000000e-01 1.0050000000e+00) (6.2291666665e-01 9.9791666665e-01 1.0050000000e+00)
0.126862          (1.2708333335e-01 9.6875000000e-01 1.0050000000e+00) (6.2291666665e-01 9.9791666665e-01 1.0050000000e+00)
0.127592          (1.2708333335e-01 9.6875000000e-01 1.0050000000e+00) (6.2291666665e-01 9.9791666665e-01 1.0050000000e+00)
0.128322          (1.2708333335e-01 9.6875000000e-01 1.0050000000e+00) (6.2291666665e-01 9.9791666665e-01 1.0050000000e+00)
0.129009          (1.2708333335e-01 9.6875000000e-01 1.0050000000e+00) (6.2291666665e-01 9.9791666665e-01 1.0050000000e+00)
0.129655          (1.2708333335e-01 9.6875000000e-01 1.0050000000e+00) (6.2291666665e-01 9.9791666665e-01 1.0050000000e+00)
0.130302          (1.2708333335e-01 9.6875000000e-01 1.0050000000e+00) (6.2291666665e-01 9.9791666665e-01 1.0050000000e+00)
0.130994          (1.2708333335e-01 9.6458333335e-01 1.0050000000e+00) (6.2291666665e-01 9.9791666665e-01 1.0050000000e+00)
0.131745          (1.2708333335e-01 9.6458333335e-01 1.0050000000e+00) (6.2291666665e-01 9.9791666665e-01 1.0050000000e+00)
0.132335          (1.2708333335e-01 9.6458333335e-01 1.0050000000e+00) (6.2291666665e-01 9.9791666665e-01 1.0050000000e+00)
0.132924          (1.2708333335e-01 9.6458333335e-01 1.0050000000e+00) (6.2291666665e-01 9.9791666665e-01 1.0050000000e+00)
0.133567          (1.2708333335e-01 9.6458333335e-01 1.0050000000e+00) (6.2291666665e-01 9.9791666665e-01 1.0050000000e+00)
0.134282          (1.2708333335e-01 9.6458333335e-01 1.0050000000e+00) (6.2291666665e-01 9.9791666665e-01 1.0050000000e+00)
0.135099          (1.2708333335e-01 9.6458333335e-01 1.0050000000e+00) (6.2291666665e-01 9.9791666665e-01 1.0050000000e+00)
0.135799          (1.2708333335e-01 9.6458333335e-01 1.0050000000e+00) (6.2291666665e-01 9.9791666665e-01 1.0050000000e+00)
0.136499          (1.2708333335e-01 9.6458333335e-01 1.0050000000e+00) (6.2291666665e-01 9.9791666665e-01 1.0050000000e+00)
0.137083          (1.2708333335e-01 9.6041666665e-01 1.0050000000e+00) (6.2291666665e-01 9.9791666665e-01 1.0050000000e+00)
0.137812          (1.2708333335e-01 9.6041666665e-01 1.0050000000e+00) (6.2291666665e-01 9.9791666665e-01 1.0050000000e+00)
0.138541          (1.2708333335e-01 9.6041666665e-01 1.0050000000e+00) (6.2291666665e-01 9.9791666665e-01 1.0050000000e+00)
0.139028          (1.2708333335e-01 9.6041666665e-01 1.0050000000e+00) (6.2291666665e-01 9.9791666665e-01 1.0050000000e+00)
0.139514          (1.2708333335e-01 9.6041666665e-01 1.0050000000e+00) (6.2291666665e-01 9.9791666665e-01 1.0050000000e+00)
0.14              (1.2708333335e-01 9.6041666665e-01 1.0050000000e+00) (6.2291666665e-01 9.9791666665e-01 1.0050000000e+00)
0.140556          (1.2708333335e-01 9.6041666665e-01 1.0050000000e+00) (6.2291666665e-01 9.9791666665e-01 1.0050000000e+00)
0.141163          (1.2708333335e-01 9.6041666665e-01 1.0050000000e+00) (6.2291666665e-01 9.9791666665e-01 1.0050000000e+00)
0.141836          (1.2708333335e-01 9.6041666665e-01 1.0050000000e+00) (6.2291666665e-01 9.9791666665e-01 1.0050000000e+00)
0.142535          (1.2708333335e-01 9.6041666665e-01 1.0050000000e+00) (6.2291666665e-01 9.9791666665e-01 1.0050000000e+00)
0.143233          (1.2708333335e-01 9.6041666665e-01 1.0050000000e+00) (6.2291666665e-01 9.9791666665e-01 1.0050000000e+00)
0.143932          (1.2708333335e-01 9.6041666665e-01 1.0050000000e+00) (6.2291666665e-01 9.9791666665e-01 1.0050000000e+00)
0.144601          (1.2708333335e-01 9.6041666665e-01 1.0050000000e+00) (6.2291666665e-01 9.9791666665e-01 1.0050000000e+00)
0.145301          (1.2708333335e-01 9.6041666665e-01 1.0050000000e+00) (6.2291666665e-01 9.9791666665e-01 1.0050000000e+00)
0.145969          (1.2708333335e-01 9.6041666665e-01 1.0050000000e+00) (6.2291666665e-01 9.9791666665e-01 1.0050000000e+00)
0.146671          (1.2708333335e-01 9.5625000000e-01 1.0050000000e+00) (6.2291666665e-01 9.9791666665e-01 1.0050000000e+00)
0.147277          (1.2708333335e-01 9.5625000000e-01 1.0050000000e+00) (6.2291666665e-01 9.9791666665e-01 1.0050000000e+00)
0.147855          (1.2708333335e-01 9.5625000000e-01 1.0050000000e+00) (6.2291666665e-01 9.9791666665e-01 1.0050000000e+00)
0.148341          (1.2708333335e-01 9.5625000000e-01 1.0050000000e+00) (6.2291666665e-01 9.9791666665e-01 1.0050000000e+00)
0.148896          (1.2708333335e-01 9.5625000000e-01 1.0050000000e+00) (6.2291666665e-01 9.9791666665e-01 1.0050000000e+00)
0.149513          (1.2708333335e-01 9.5625000000e-01 1.0050000000e+00) (6.2291666665e-01 9.9791666665e-01 1.0050000000e+00)
0.150096          (1.2708333335e-01 9.5625000000e-01 1.0050000000e+00) (6.2291666665e-01 9.9791666665e-01 1.0050000000e+00)
0.150678          (1.2708333335e-01 9.5625000000e-01 1.0050000000e+00) (6.2291666665e-01 9.9791666665e-01 1.0050000000e+00)
0.151261          (1.2708333335e-01 9.5625000000e-01 1.0050000000e+00) (6.2291666665e-01 9.9791666665e-01 1.0050000000e+00)
0.151933          (1.2708333335e-01 9.5625000000e-01 1.0050000000e+00) (6.2291666665e-01 9.9791666665e-01 1.0050000000e+00)
0.152471          (1.2708333335e-01 9.5625000000e-01 1.0050000000e+00) (6.2291666665e-01 9.9791666665e-01 1.0050000000e+00)
0.15305           (1.2708333335e-01 9.5625000000e-01 1.0050000000e+00) (6.2291666665e-01 9.9791666665e-01 1.0050000000e+00)
0.153629          (1.2708333335e-01 9.5625000000e-01 1.0050000000e+00) (6.2291666665e-01 9.9791666665e-01 1.0050000000e+00)
0.154054          (1.2708333335e-01 9.5625000000e-01 1.0050000000e+00) (6.2291666665e-01 9.9791666665e-01 1.0050000000e+00)
0.154549          (1.2708333335e-01 9.5208333335e-01 1.0050000000e+00) (6.2291666665e-01 9.9791666665e-01 1.0050000000e+00)
0.155094          (1.2708333335e-01 9.5208333335e-01 1.0050000000e+00) (6.2291666665e-01 9.9791666665e-01 1.0050000000e+00)
0.15554           (1.2708333335e-01 9.5208333335e-01 1.0050000000e+00) (6.2291666665e-01 9.9791666665e-01 1.0050000000e+00)
0.156036          (1.2708333335e-01 9.5208333335e-01 1.0050000000e+00) (6.2291666665e-01 9.9791666665e-01 1.0050000000e+00)
0.156602          (1.2708333335e-01 9.5208333335e-01 1.0050000000e+00) (6.2291666665e-01 9.9791666665e-01 1.0050000000e+00)
0.157282          (1.2708333335e-01 9.5208333335e-01 1.0050000000e+00) (6.2291666665e-01 9.9791666665e-01 1.0050000000e+00)
0.157825          (1.2708333335e-01 9.5208333335e-01 1.0050000000e+00) (6.2291666665e-01 9.9791666665e-01 1.0050000000e+00)
0.158369          (1.2708333335e-01 9.5208333335e-01 1.0050000000e+00) (6.2291666665e-01 9.9791666665e-01 1.0050000000e+00)
0.158913          (1.2708333335e-01 9.5208333335e-01 1.0050000000e+00) (6.2291666665e-01 9.9791666665e-01 1.0050000000e+00)
0.159456          (1.2708333335e-01 9.5208333335e-01 1.0050000000e+00) (6.2291666665e-01 9.9791666665e-01 1.0050000000e+00)
0.16              (1.2708333335e-01 9.4791666665e-01 1.0050000000e+00) (6.2291666665e-01 9.9791666665e-01 1.0050000000e+00)
0.160541          (1.2708333335e-01 9.4791666665e-01 1.0050000000e+00) (6.2291666665e-01 9.9791666665e-01 1.0050000000e+00)
0.161081          (1.2708333335e-01 9.4791666665e-01 1.0050000000e+00) (6.2291666665e-01 9.9791666665e-01 1.0050000000e+00)
0.161691          (1.2708333335e-01 9.4791666665e-01 1.0050000000e+00) (6.2291666665e-01 9.9791666665e-01 1.0050000000e+00)
0.162173          (1.2708333335e-01 9.4791666665e-01 1.0050000000e+00) (6.2291666665e-01 9.9791666665e-01 1.0050000000e+00)
0.162713          (1.2708333335e-01 9.4791666665e-01 1.0050000000e+00) (6.2291666665e-01 9.9791666665e-01 1.0050000000e+00)
0.163331          (1.2708333335e-01 9.4791666665e-01 1.0050000000e+00) (6.2291666665e-01 9.9791666665e-01 1.0050000000e+00)
0.163998          (1.2708333335e-01 9.4791666665e-01 1.0050000000e+00) (6.2291666665e-01 9.9791666665e-01 1.0050000000e+00)
0.16476           (1.2708333335e-01 9.4791666665e-01 1.0050000000e+00) (6.2291666665e-01 9.9791666665e-01 1.0050000000e+00)
0.165324          (1.2708333335e-01 9.4791666665e-01 1.0050000000e+00) (6.2291666665e-01 9.9791666665e-01 1.0050000000e+00)
0.165962          (1.2708333335e-01 9.4791666665e-01 1.0050000000e+00) (6.2291666665e-01 9.9791666665e-01 1.0050000000e+00)
0.166524          (1.2708333335e-01 9.4791666665e-01 1.0050000000e+00) (6.2291666665e-01 9.9791666665e-01 1.0050000000e+00)
0.167165          (1.2708333335e-01 9.4375000000e-01 1.0050000000e+00) (6.2291666665e-01 9.9791666665e-01 1.0050000000e+00)
0.167878          (1.2708333335e-01 9.4375000000e-01 1.0050000000e+00) (6.2291666665e-01 9.9791666665e-01 1.0050000000e+00)
0.168516          (1.2708333335e-01 9.4375000000e-01 1.0050000000e+00) (6.2291666665e-01 9.9791666665e-01 1.0050000000e+00)
0.169038          (1.2708333335e-01 9.4375000000e-01 1.0050000000e+00) (6.2291666665e-01 9.9791666665e-01 1.0050000000e+00)
0.169615          (1.2708333335e-01 9.4375000000e-01 1.0050000000e+00) (6.2291666665e-01 9.9791666665e-01 1.0050000000e+00)
0.170264          (1.2708333335e-01 9.4375000000e-01 1.0050000000e+00) (6.2291666665e-01 9.9791666665e-01 1.0050000000e+00)
0.170873          (1.2708333335e-01 9.4375000000e-01 1.0050000000e+00) (6.2291666665e-01 9.9791666665e-01 1.0050000000e+00)
0.17141           (1.2708333335e-01 9.3958333335e-01 1.0050000000e+00) (6.2291666665e-01 9.9791666665e-01 1.0050000000e+00)
0.171819          (1.2708333335e-01 9.3958333335e-01 1.0050000000e+00) (6.2291666665e-01 9.9791666665e-01 1.0050000000e+00)
0.172273          (1.2708333335e-01 9.3958333335e-01 1.0050000000e+00) (6.2291666665e-01 9.9791666665e-01 1.0050000000e+00)
0.172788          (1.2708333335e-01 9.3958333335e-01 1.0050000000e+00) (6.2291666665e-01 9.9791666665e-01 1.0050000000e+00)
0.173389          (1.2708333335e-01 9.3958333335e-01 1.0050000000e+00) (6.2291666665e-01 9.9791666665e-01 1.0050000000e+00)
0.17405           (1.2708333335e-01 9.3958333335e-01 1.0050000000e+00) (6.2291666665e-01 9.9791666665e-01 1.0050000000e+00)
0.174794          (1.2708333335e-01 9.3958333335e-01 1.0050000000e+00) (6.2291666665e-01 9.9791666665e-01 1.0050000000e+00)
0.175267          (1.2708333335e-01 9.3958333335e-01 1.0050000000e+00) (6.2291666665e-01 9.9791666665e-01 1.0050000000e+00)
0.175793          (1.2708333335e-01 9.3958333335e-01 1.0050000000e+00) (6.2291666665e-01 9.9791666665e-01 1.0050000000e+00)
0.176394          (1.2708333335e-01 9.3541666665e-01 1.0050000000e+00) (6.2291666665e-01 9.9791666665e-01 1.0050000000e+00)
0.176795          (1.2708333335e-01 9.3541666665e-01 1.0050000000e+00) (6.2291666665e-01 9.9791666665e-01 1.0050000000e+00)
0.177253          (1.2708333335e-01 9.3541666665e-01 1.0050000000e+00) (6.2291666665e-01 9.9791666665e-01 1.0050000000e+00)