# Region type :   patch inlet
# Faces           : 120
# Area            : 5.0000000000e-03
# Scale factor    : 1.0000000000e+00
# Time            	sum(myPhi)
0.00011976        	-3.8477481068e-02
0.00026382        	-4.1028418831e-02
0.000436945       	-4.5127799747e-02
0.000645062       	-4.9614405861e-02
0.000893202       	-5.3995249819e-02
0.00119175        	-5.7754265732e-02
0.00154662        	-6.0490554008e-02
0.00197577        	-6.2430893584e-02
0.00249075        	-6.3559000266e-02
0.00311608        	-6.4381332109e-02
0.00385016        	-6.4307427658e-02
0.00447131        	-5.8587292086e-02
0.00517716        	-5.8920261896e-02
0.00600065        	-5.9422838919e-02
0.00693394        	-5.9367435786e-02
0.00793902        	-5.8482323930e-02
0.0089441         	-5.6574407680e-02
0.00994918        	-5.5064083418e-02
0.0109543         	-5.3801495068e-02
0.0119593         	-5.2723920442e-02
0.0129644         	-5.1791960301e-02
0.0139695         	-5.0982003364e-02
0.0149746         	-5.0269249162e-02
0.0159797         	-4.9640097605e-02
0.0169848         	-4.9066860302e-02
0.0179898         	-4.8551694962e-02
0.0189949         	-4.8085062231e-02
0.02              	-4.7654713674e-02
0.021             	-4.7217643683e-02
0.022             	-4.6859462282e-02
0.023             	-4.6530343068e-02
0.024             	-4.6222919214e-02
0.025             	-4.5934842515e-02
0.026             	-4.5669760964e-02
0.027             	-4.5419163010e-02
0.028             	-4.5182669839e-02
0.029             	-4.4959841840e-02
0.03              	-4.4751895839e-02
0.031             	-4.4558098298e-02
0.032             	-4.4378165121e-02
0.033             	-4.4208030730e-02
0.034             	-4.4047855383e-02
0.035             	-4.3895994707e-02
0.036             	-4.3751028600e-02
0.037             	-4.3612146222e-02
0.038             	-4.3480078078e-02
0.039             	-4.3354426944e-02
0.04              	-4.3235714447e-02
0.041             	-4.3123445986e-02
0.042             	-4.3016689541e-02
0.043             	-4.2915573561e-02
0.044             	-4.2819423091e-02
0.045             	-4.2727468339e-02
0.046             	-4.2640786600e-02
0.047             	-4.2556043317e-02
0.048             	-4.2475313912e-02
0.049             	-4.2399117544e-02
0.05              	-4.2326439649e-02
0.051             	-4.2257253850e-02
0.052             	-4.2192036111e-02
0.053             	-4.2130945824e-02
0.054             	-4.2073793540e-02
0.055             	-4.2018843186e-02
0.056             	-4.1969434801e-02
0.057             	-4.1924757708e-02
0.058             	-4.1884561137e-02
0.059             	-4.1850153741e-02
0.06              	-4.1820097875e-02
0.061             	-4.1795754543e-02
0.062             	-4.1777585408e-02
0.063             	-4.1768160994e-02
0.064             	-4.1764819252e-02
0.065             	-4.1768782014e-02
0.066             	-4.1781808807e-02
0.067             	-4.1804651885e-02
0.068             	-4.1839566266e-02
0.0688            	-4.1026915405e-02
0.0697333         	-4.1647124552e-02
0.07076           	-4.2115374757e-02
0.07153           	-4.1050362335e-02
0.072377          	-4.1462469990e-02
0.0733299         	-4.2029988193e-02
0.0742828         	-4.2138044149e-02
0.0752356         	-4.2262097146e-02
0.0761885         	-4.2400533508e-02
0.0771414         	-4.2551345694e-02
0.0780943         	-4.2714914123e-02
0.0790471         	-4.2889907738e-02
0.08              	-4.3077030750e-02
0.081             	-4.3550915102e-02
0.0818261         	-4.2725217222e-02
0.0826163         	-4.2674971966e-02
0.0834854         	-4.3355471109e-02
0.0841206         	-4.1974504235e-02
0.0848424         	-4.2705149338e-02
0.0856402         	-4.3401624991e-02
0.0862929         	-4.2519790800e-02
0.0870143         	-4.3183551947e-02
0.0878259         	-4.4047883356e-02
0.0884056         	-4.2384987980e-02
0.0890498         	-4.3043795555e-02
0.0896261         	-4.2606246153e-02
0.0902745         	-4.3355456758e-02
0.0910226         	-4.4381331940e-02
0.0917132         	-4.4044417344e-02
0.0923506         	-4.3716832303e-02
0.0929881         	-4.3863270527e-02
0.0936893         	-4.4627634321e-02
0.0943904         	-4.4792180419e-02
0.0950916         	-4.4959193631e-02
0.0959097         	-4.6321292369e-02
0.0965914         	-4.5092350182e-02
0.0974436         	-4.7070366307e-02
0.0980827         	-4.4945154787e-02
0.0987218         	-4.5093114252e-02
0.0993609         	-4.5224400584e-02
0.1               	-4.5352798494e-02
0.100714          	-4.6360481727e-02
0.101317          	-4.5162121023e-02
0.101984          	-4.6064511025e-02
0.102735          	-4.7193140442e-02
0.103598          	-4.8676945291e-02
0.104379          	-4.7806171452e-02
0.105058          	-4.6666792483e-02
0.105805          	-4.7644976145e-02
0.106451          	-4.6430918159e-02
0.10704           	-4.5786889388e-02
0.107688          	-4.6651705148e-02
0.108412          	-4.7731998764e-02
0.10924           	-4.9152556539e-02
0.110067          	-4.9206538537e-02
0.110777          	-4.7708159624e-02
0.111486          	-4.7782787508e-02
0.11226           	-4.8702057502e-02
0.112905          	-4.6984913979e-02
0.113615          	-4.7930279515e-02
0.114324          	-4.7954839884e-02
0.114955          	-4.6893721826e-02
0.115515          	-4.5943750253e-02
0.116156          	-4.7111455179e-02
0.116797          	-4.7120327161e-02
0.117331          	-4.5618010666e-02
0.117998          	-4.7548033719e-02
0.118665          	-4.7533197065e-02
0.119333          	-4.7534089887e-02
0.12              	-4.7531489328e-02
0.12069           	-4.7836889377e-02
0.121258          	-4.6105987111e-02
0.121862          	-4.6642674533e-02
0.122534          	-4.7579462288e-02
0.123293          	-4.8761662713e-02
0.124129          	-4.9729921886e-02
0.124819          	-4.7684454934e-02
0.125479          	-4.7262618379e-02
0.126205          	-4.8145785534e-02
0.126862          	-4.7150661629e-02
0.127592          	-4.8126238453e-02
0.128322          	-4.8068822329e-02
0.129009          	-4.7444609709e-02
0.129655          	-4.6866432713e-02
0.130302          	-4.6841733680e-02
0.130994          	-4.7432760413e-02
0.131745          	-4.8151486185e-02
0.132335          	-4.5947794975e-02
0.132924          	-4.5943328512e-02
0.133567          	-4.6642469619e-02
0.134282          	-4.7551136331e-02
0.135099          	-4.8815825683e-02
0.135799          	-4.7226631137e-02
0.136499          	-4.7200633929e-02
0.137083          	-4.5635783301e-02
0.137812          	-4.7528211512e-02
0.138541          	-4.7462912134e-02
0.139028          	-4.4259357781e-02
0.139514          	-4.4267497589e-02
0.14              	-4.4261240197e-02
0.140556          	-4.5172160701e-02
0.141163          	-4.5832853997e-02
0.141836          	-4.6645738189e-02
0.142535          	-4.6937480341e-02
0.143233          	-4.6900766898e-02
0.143932          	-4.6868656310e-02
0.144601          	-4.6471299704e-02
0.145301          	-4.6831945811e-02
0.145969          	-4.6401642576e-02
0.146671          	-4.6800886309e-02
0.147277          	-4.5572430184e-02
0.147855          	-4.5220206467e-02
0.148341          	-4.4030719873e-02
0.148896          	-4.4926587170e-02
0.149513          	-4.5698554721e-02
0.150096          	-4.5250813333e-02
0.150678          	-4.5247140736e-02
0.151261          	-4.5241529310e-02
0.151933          	-4.6360211348e-02
0.152471          	-4.4650351653e-02
0.15305           	-4.5182814931e-02
0.153629          	-4.5176573117e-02
0.154054          	-4.3200791196e-02
0.154549          	-4.4126190089e-02
0.155094          	-4.4758339977e-02
0.15554           	-4.3485741865e-02
0.156036          	-4.4134926655e-02
0.156602          	-4.5039524247e-02
0.157282          	-4.6456773466e-02
0.157825          	-4.4730576126e-02
0.158369          	-4.4741923377e-02
0.158913          	-4.4744309076e-02
0.159456          	-4.4747248290e-02
0.16              	-4.4750747029e-02
0.160541          	-4.4714809786e-02
0.161081          	-4.4719107483e-02
0.161691          	-4.5608269151e-02
0.162173          	-4.3966401716e-02
0.162713          	-4.4730960445e-02
0.163331          	-4.5712477242e-02
0.163998          	-4.6325398813e-02
0.16476           	-4.7495043702e-02
0.165324          	-4.5009279128e-02
0.165962          	-4.5958351159e-02
0.166524          	-4.4985817440e-02
0.167165          	-4.6010957874e-02
0.167878          	-4.6892006352e-02
0.168516          	-4.5943784641e-02
0.169038          	-4.4483617177e-02
0.169615          	-4.5200568900e-02
0.170264          	-4.6112748204e-02
0.170873          	-4.5597099809e-02
0.17141           	-4.4694269400e-02
0.171819          	-4.3050276760e-02
0.172273          	-4.3660582771e-02
0.172788          	-4.4455718628e-02
0.173389          	-4.5562641656e-02
0.17405           	-4.6320773848e-02
0.174794          	-4.7346535750e-02
0.175267          	-4.3901782613e-02
0.175793          	-4.4608189160e-02
0.176394          	-4.5577842518e-02
0.176795          	-4.2977003774e-02
0.177253          	-4.3749649597e-02
0.177802          	-4.4949911571e-02
0.178352          	-4.4949840505e-02
0.178901          	-4.4956351005e-02
0.179451          	-4.4963214862e-02
0.18              	-4.4970041033e-02
0.180556          	-4.5055860943e-02
0.181111          	-4.5061460656e-02
0.181561          	-4.3681912259e-02
0.182073          	-4.4519415103e-02
0.182571          	-4.4335536831e-02
0.183133          	-4.5184279649e-02
0.183677          	-4.4947179607e-02
0.184282          	-4.5739168932e-02
0.184824          	-4.4923027448e-02
0.185366          	-4.4932706237e-02
0.185976          	-4.5818894430e-02
0.186613          	-4.6169653667e-02
0.187318          	-4.7019982841e-02
0.187755          	-4.3538108889e-02
0.188245          	-4.4255786895e-02
0.188805          	-4.5178905172e-02
0.189427          	-4.5983733468e-02
0.190087          	-4.6475144859e-02
0.190707          	-4.5934298646e-02
0.191422          	-4.7153744264e-02
0.192082          	-4.6430895471e-02
0.192801          	-4.7192069611e-02
0.193251          	-4.3690291819e-02
0.193771          	-4.4624862241e-02
0.194337          	-4.5241840409e-02
0.194903          	-4.5240689518e-02
0.19554           	-4.6158289678e-02
0.196036          	-4.4309659239e-02
0.196602          	-4.5251837199e-02
0.197168          	-4.5248082429e-02
0.197735          	-4.5250094132e-02
0.198301          	-4.5251472173e-02
0.198726          	-4.3386895372e-02
0.199151          	-4.3400485778e-02
0.199575          	-4.3407688812e-02
0.2               	-4.3414683672e-02
0.200488          	-4.4263956599e-02
0.201045          	-4.5184525154e-02
0.201657          	-4.5882899523e-02
0.202127          	-4.4021495954e-02
0.202653          	-4.4768465456e-02
0.203178          	-4.4766814165e-02
0.203529          	-4.2420948538e-02
0.203921          	-4.3000963844e-02
0.204368          	-4.3741122925e-02
0.204872          	-4.4514118595e-02
0.205394          	-4.4743754687e-02
0.205978          	-4.5569054287e-02
0.206615          	-4.6251810399e-02
0.207253          	-4.6236954302e-02
0.207961          	-4.7137110720e-02
0.208563          	-4.5745858978e-02
0.209083          	-4.4676658674e-02
0.209557          	-4.4085060078e-02
0.210079          	-4.4721272271e-02
0.210575          	-4.4374082983e-02
0.21113           	-4.5149405457e-02
0.211763          	-4.6175738208e-02
0.212248          	-4.4209224576e-02
0.212802          	-4.5136019001e-02
0.213402          	-4.5732697753e-02
0.213731          	-4.2132226894e-02
0.2141            	-4.2675494738e-02
0.214522          	-4.3393595235e-02
0.214978          	-4.3868464528e-02
0.21548           	-4.4480087328e-02
0.216045          	-4.5308504464e-02
0.21654           	-4.4368098697e-02
0.217034          	-4.4374736338e-02
0.217627          	-4.5681653212e-02
0.21822           	-4.5666459227e-02
0.218814          	-4.5660604549e-02
0.219209          	-4.3032274238e-02
0.219605          	-4.3045648774e-02
0.22              	-4.3050942458e-02
0.220455          	-4.3853661798e-02
0.220969          	-4.4652613316e-02
0.221546          	-4.5471716999e-02
0.222007          	-4.3934313526e-02
0.222536          	-4.4848052740e-02
0.223008          	-4.4081442109e-02
0.22348           	-4.4087193996e-02
0.224013          	-4.4900631616e-02
0.224483          	-4.4060934593e-02
0.225018          	-4.4931058330e-02
0.225618          	-4.5769307426e-02
0.226302          	-4.6865014627e-02
0.226925          	-4.6034635153e-02
0.227548          	-4.6031020929e-02
0.228114          	-4.5285717940e-02
0.228739          	-4.6062130202e-02
0.229156          	-4.3304211422e-02
0.229628          	-4.4046855350e-02
0.230174          	-4.5032241965e-02
0.230691          	-4.4647020833e-02
0.231273          	-4.5498903288e-02
0.231896          	-4.6029261174e-02
0.232346          	-4.3745723876e-02
0.232857          	-4.4556776997e-02
0.233406          	-4.5071134567e-02
0.233956          	-4.5066883832e-02
0.234387          	-4.3505992972e-02
0.234855          	-4.3997548893e-02
0.23537           	-4.4620137124e-02
0.235833          	-4.3934543179e-02
0.236353          	-4.4709985530e-02
0.236961          	-4.5844421617e-02
0.237569          	-4.5829445992e-02
0.238177          	-4.5822589993e-02
0.238784          	-4.5816291051e-02
0.239392          	-4.5810236715e-02
0.24              	-4.5804492910e-02
0.240571          	-4.5327456975e-02
0.24107           	-4.4367864326e-02
0.241626          	-4.5145327902e-02
0.242086          	-4.3856409227e-02
0.242598          	-4.4561812726e-02
0.243178          	-4.5455080992e-02
0.243825          	-4.6312276770e-02
0.2443            	-4.4065427499e-02
0.244736          	-4.3551240169e-02
0.245229          	-4.4307139952e-02
0.245776          	-4.5027711196e-02
0.246284          	-4.4509371226e-02
0.246833          	-4.5048516408e-02
0.247359          	-4.4756799653e-02
0.247781          	-4.3360718041e-02
0.248251          	-4.4021413238e-02
0.248785          	-4.4871120694e-02
0.249375          	-4.5602763386e-02
0.250039          	-4.6547628266e-02
0.250563          	-4.4715434137e-02
0.251153          	-4.5584019630e-02
0.251619          	-4.3944680548e-02
0.252             	-4.2820896969e-02
0.252421          	-4.3371514376e-02
0.252894          	-4.4079853512e-02
0.253289          	-4.3021671453e-02
0.253737          	-4.3740054452e-02
0.254259          	-4.4735620187e-02
0.25478           	-4.4731406399e-02
0.25536           	-4.5495082793e-02
0.25594           	-4.5485984511e-02
0.256448          	-4.4528662093e-02
0.256803          	-4.2490571666e-02
0.257203          	-4.3105646049e-02
0.257552          	-4.2429279075e-02
0.25796           	-4.3230836805e-02
0.25847           	-4.4603873221e-02
0.25898           	-4.4597686695e-02
0.25949           	-4.4598497664e-02
0.26              	-4.4599203021e-02
0.260541          	-4.5006266390e-02
0.261066          	-4.4809039014e-02
0.261411          	-4.2362110708e-02
0.261798          	-4.2962705521e-02
0.262242          	-4.3735399978e-02
0.262749          	-4.4587666673e-02
0.263288          	-4.5005633771e-02
0.263885          	-4.5763253426e-02
0.264441          	-4.5209447538e-02
0.265063          	-4.6084302183e-02
0.265617          	-4.5162516274e-02
0.266242          	-4.6110519399e-02
0.266686          	-4.3698015085e-02
0.267179          	-4.4371961111e-02
0.267736          	-4.5223111807e-02
0.268382          	-4.6364722257e-02
0.268963          	-4.5504358205e-02
0.269612          	-4.6393433384e-02
0.270189          	-4.5438003384e-02
0.270734          	-4.5019991617e-02
0.271279          	-4.5021470695e-02
0.271738          	-4.3880440444e-02
0.272254          	-4.4652210673e-02
0.272808          	-4.5135044648e-02
0.273407          	-4.5733240721e-02
0.273914          	-4.4514547946e-02
0.274467          	-4.5129765036e-02
0.275082          	-4.5926403449e-02
0.275697          	-4.5912976043e-02
0.276175          	-4.4116717247e-02
0.276721          	-4.5030253624e-02
0.277086          	-4.2596679378e-02
0.277502          	-4.3313168449e-02
0.277918          	-4.3316189164e-02
0.278439          	-4.4712409710e-02
0.278959          	-4.4706097128e-02
0.27948           	-4.4706421850e-02
0.28              	-4.4707089751e-02
0.280541          	-4.4973494753e-02
0.28104           	-4.4421547988e-02
0.281597          	-4.5201167202e-02
0.281965          	-4.2663550207e-02
0.282375          	-4.3243644918e-02
0.282839          	-4.3972834260e-02
0.283359          	-4.4722277201e-02
0.283953          	-4.5696471041e-02
0.284455          	-4.4461719999e-02
0.28501           	-4.5179828391e-02
0.285586          	-4.5453531853e-02
0.286141          	-4.5156710553e-02
0.286674          	-4.4875125448e-02
0.287104          	-4.3502375190e-02
0.287581          	-4.4152679299e-02
0.288041          	-4.3916260694e-02
0.288454          	-4.3280534327e-02
0.288916          	-4.3954436824e-02
0.289443          	-4.4834874069e-02
0.289999          	-4.5196509287e-02
0.290624          	-4.6100460789e-02
0.29105           	-4.3456536181e-02
0.291521          	-4.4073265359e-02
0.291945          	-4.3440119376e-02
0.292419          	-4.4117549807e-02
0.292961          	-4.5017725969e-02
0.293547          	-4.5604598406e-02
0.294134          	-4.5594627081e-02
0.294667          	-4.4888011569e-02
0.2952            	-4.4890810296e-02
0.2958            	-4.5765435661e-02
0.2964            	-4.5752636716e-02
0.29685           	-4.3766678368e-02
0.2973            	-4.3778083742e-02
0.29784           	-4.4980049416e-02
0.29838           	-4.4971747740e-02
0.29892           	-4.4970065958e-02
0.29946           	-4.4968464459e-02
0.3               	-4.4966830156e-02
0.300606          	-4.5831316198e-02
0.301079          	-4.4068538420e-02
0.301473          	-4.3020236726e-02
0.301914          	-4.3662253943e-02
0.302417          	-4.4483259268e-02
0.302856          	-4.3641277794e-02
0.303361          	-4.4513604540e-02
0.303897          	-4.4941373512e-02
0.304434          	-4.4937613565e-02
0.304953          	-4.4699514410e-02
0.30551           	-4.5208271015e-02
0.306114          	-4.5810334849e-02
0.306522          	-4.3212129377e-02
0.306972          	-4.3776185435e-02
0.307473          	-4.4470875893e-02
0.30792           	-4.3751170375e-02
0.308423          	-4.4506166086e-02
0.308975          	-4.5138410107e-02
0.309587          	-4.5934887732e-02
0.3102            	-4.5920146898e-02
0.31069           	-4.4302189495e-02
0.31118           	-4.4311597343e-02
0.311621          	-4.3658477378e-02
0.31202           	-4.3098058995e-02
0.312463          	-4.3703877855e-02
0.31284           	-4.2805190620e-02
0.313261          	-4.3415702296e-02
0.313743          	-4.4228246618e-02
0.314311          	-4.5388795702e-02
0.31488           	-4.5376531511e-02
0.31552           	-4.6300793527e-02
0.31616           	-4.6281490486e-02
0.316544          	-4.2883176381e-02
0.316976          	-4.3548211536e-02
0.317408          	-4.3550130843e-02
0.317732          	-4.2083461417e-02
0.31811           	-4.2832684876e-02
0.318583          	-4.4115681100e-02
0.319055          	-4.4112068920e-02
0.319528          	-4.4114144505e-02
0.32              	-4.4116256866e-02
0.320541          	-4.5027073665e-02
0.320922          	-4.2883232052e-02
0.321346          	-4.3471833996e-02
0.321824          	-4.4207642403e-02
0.322257          	-4.3591059417e-02
0.322737          	-4.4228013359e-02
0.323129          	-4.3045590930e-02
0.323573          	-4.3756104714e-02
0.324071          	-4.4481448424e-02
0.32464           	-4.5424791555e-02
0.325105          	-4.4033863784e-02
0.325586          	-4.4243727813e-02
0.325955          	-4.2738295527e-02
0.326368          	-4.3342397341e-02
0.326838          	-4.4117299025e-02
0.327326          	-4.4349353508e-02
0.327735          	-4.3283614094e-02
0.328189          	-4.3908543389e-02
0.328611          	-4.3466780873e-02
0.329085          	-4.4186774054e-02
0.329605          	-4.4791364648e-02
0.330183          	-4.5553739122e-02
0.33065           	-4.4073597675e-02
0.331095          	-4.3780080197e-02
0.331482          	-4.2991874104e-02
0.331908          	-4.3527793395e-02
0.332384          	-4.4208567852e-02
0.332928          	-4.5118370679e-02
0.333344          	-4.3385044528e-02
0.33382           	-4.4201453043e-02
0.334206          	-4.2985392566e-02
0.334652          	-4.3805279724e-02
0.335138          	-4.4352340732e-02
0.335678          	-4.5074295080e-02
0.336071          	-4.3075008375e-02
0.336508          	-4.3681667066e-02
0.337006          	-4.4526102793e-02
0.337505          	-4.4520395389e-02
0.338004          	-4.4518746587e-02
0.338503          	-4.4516894967e-02
0.339002          	-4.4515020788e-02
0.339501          	-4.4513084572e-02
0.34              	-4.4511223032e-02
0.340556          	-4.5266643262e-02
0.341183          	-4.6201230233e-02
0.341653          	-4.4102060667e-02
0.342177          	-4.4833159426e-02
0.342623          	-4.3770694043e-02
0.343037          	-4.3344670092e-02
0.343508          	-4.4128459911e-02
0.34404           	-4.4940924927e-02
0.344555          	-4.4704068531e-02
0.345127          	-4.5463329482e-02
0.345564          	-4.3653332391e-02
0.346062          	-4.4475986841e-02
0.346449          	-4.2975328005e-02
0.346886          	-4.3664668865e-02
0.347372          	-4.4320657540e-02
0.347921          	-4.5163851483e-02
0.348557          	-4.6294890641e-02
0.348965          	-4.3254454210e-02
0.349407          	-4.3711921835e-02
0.349867          	-4.3971759298e-02
0.350374          	-4.4590559358e-02
0.350909          	-4.4960864368e-02
0.351477          	-4.5397755558e-02
0.352133          	-4.6532236030e-02
0.352595          	-4.3967512112e-02
0.353089          	-4.4393415985e-02
0.353665          	-4.5482455484e-02
0.354061          	-4.3066434541e-02
0.354518          	-4.3902412515e-02
0.354975          	-4.3901137056e-02
0.355477          	-4.4515700220e-02
0.35598           	-4.4512061057e-02
0.356554          	-4.5463147923e-02
0.357046          	-4.4364474381e-02
0.357539          	-4.4370043349e-02
0.358154          	-4.5996644298e-02
0.358615          	-4.3942656079e-02
0.358962          	-4.2388774941e-02
0.359308          	-4.2397416004e-02
0.359654          	-4.2402325587e-02
0.36              	-4.2407154263e-02
0.360392          	-4.3043028009e-02
0.360838          	-4.3772331060e-02
0.361356          	-4.4743123548e-02
0.361834          	-4.4202844017e-02
0.362368          	-4.4958208120e-02
0.362976          	-4.5923532979e-02
0.363477          	-4.4489043130e-02
0.36388           	-4.3179112227e-02
0.364328          	-4.3794782237e-02
0.364788          	-4.3972477720e-02
0.365279          	-4.4373310039e-02
0.365787          	-4.4597881846e-02
0.366355          	-4.5404938505e-02
0.367005          	-4.6457121406e-02
0.367727          	-4.7362151643e-02
0.368449          	-4.7325243710e-02
0.36893           	-4.4175360188e-02
0.369433          	-4.4482019683e-02
0.369914          	-4.4177022101e-02
0.370418          	-4.4500031880e-02
0.370982          	-4.5282571525e-02
0.371512          	-4.4838149393e-02
0.372078          	-4.5304473812e-02
0.372687          	-4.5865609366e-02
0.37325           	-4.5242540517e-02
0.373864          	-4.5909347996e-02
0.374545          	-4.6773855548e-02
0.375227          	-4.6749647187e-02
0.375661          	-4.3506407321e-02
0.376143          	-4.4164742195e-02
0.376694          	-4.5072039665e-02
0.377355          	-4.6493167938e-02
0.378017          	-4.6469054619e-02
0.378512          	-4.4315764583e-02
0.379008          	-4.4328927322e-02
0.379504          	-4.4331930736e-02
0.38              	-4.4334801095e-02
0.380476          	-4.4077322681e-02
0.380883          	-4.3155861249e-02
0.381338          	-4.3812714070e-02
0.381744          	-4.3152220584e-02
0.3822            	-4.3840017928e-02
0.382709          	-4.4535046721e-02
0.383217          	-4.4533738389e-02
0.383796          	-4.5457613645e-02
0.384444          	-4.6348308940e-02
0.385             	-4.5130657625e-02
0.3855            	-4.4405835898e-02
0.386057          	-4.5170917774e-02
0.386424          	-4.2627943995e-02
0.386836          	-4.3242172244e-02
0.387306          	-4.4033810238e-02
0.387835          	-4.4813717710e-02
0.388443          	-4.5848627164e-02
0.389021          	-4.5438999406e-02
0.389667          	-4.6319981729e-02
0.390356          	-4.6854664215e-02
0.390999          	-4.6246414192e-02
0.391374          	-4.2721072494e-02
0.391805          	-4.3493880136e-02
0.392287          	-4.4172951832e-02
0.392801          	-4.4598721793e-02
0.393315          	-4.4598517290e-02
0.393872          	-4.5163691908e-02
0.394344          	-4.4029738858e-02
0.394858          	-4.4606730407e-02
0.395429          	-4.5356454904e-02
0.395937          	-4.4516242592e-02
0.396518          	-4.5475759512e-02
0.396953          	-4.3551322971e-02
0.397461          	-4.4530046219e-02
0.398096          	-4.6188340622e-02
0.39873           	-4.6166634034e-02
0.399365          	-4.6157927582e-02
0.4               	-4.6149300382e-02
0.400571          	-4.5321535817e-02
0.401127          	-4.5111915720e-02
0.401483          	-4.2468991867e-02
0.401877          	-4.2994278367e-02
0.402319          	-4.3644361471e-02
0.40281           	-4.4301215397e-02
0.403364          	-4.5137060726e-02
0.40398           	-4.5934042783e-02
0.404677          	-4.6953594794e-02
0.405188          	-4.4527953187e-02
0.405757          	-4.5314931631e-02
0.406351          	-4.5617225760e-02
0.406791          	-4.3599305365e-02
0.40728           	-4.4262923818e-02
0.407833          	-4.5104064133e-02
0.408442          	-4.5818843302e-02
0.40905           	-4.5808260338e-02
0.409626          	-4.5388102685e-02
0.410275          	-4.6319734249e-02
0.410698          	-4.3356611169e-02
0.411187          	-4.4261564555e-02
0.411554          	-4.2624848429e-02
0.411957          	-4.3108047791e-02
0.412403          	-4.3712495439e-02
0.41291           	-4.4507867538e-02
0.413455          	-4.5020068404e-02
0.41405           	-4.5664994015e-02
0.414546          	-4.4356114784e-02
0.415091          	-4.5019683276e-02
0.415637          	-4.5015448852e-02
0.416122          	-4.4215556470e-02
0.416509          	-4.2923500943e-02
0.416946          	-4.3587328094e-02
0.417455          	-4.4560700515e-02
0.417964          	-4.4557609036e-02
0.418473          	-4.4559127089e-02
0.418982          	-4.4560754706e-02
0.419491          	-4.4562567137e-02
0.42              	-4.4563991014e-02
0.420571          	-4.5388448321e-02
0.421097          	-4.4770274065e-02
0.421536          	-4.3635211288e-02
0.422035          	-4.4438514577e-02
0.422484          	-4.3770015441e-02
0.422985          	-4.4463312979e-02
0.423471          	-4.4271349885e-02
0.424022          	-4.5134872645e-02
0.424537          	-4.4658041949e-02
0.425006          	-4.4036736401e-02
0.425541          	-4.4933729902e-02
0.426008          	-4.4008470269e-02
0.426445          	-4.3623926754e-02
0.426929          	-4.4259013188e-02
0.427396          	-4.4026906218e-02
0.427816          	-4.3401922256e-02
0.428285          	-4.4062993954e-02
0.428817          	-4.4916390050e-02
0.429326          	-4.4588713851e-02
0.429887          	-4.5300578645e-02
0.43042           	-4.4901420682e-02
0.430983          	-4.5316013123e-02
0.431375          	-4.3015631503e-02
0.431806          	-4.3559669522e-02
0.432288          	-4.4244984288e-02
0.432839          	-4.5160732437e-02
0.43349           	-4.6463980765e-02
0.434082          	-4.5668967687e-02
0.434505          	-4.3421848147e-02
0.434963          	-4.3908805439e-02
0.435421          	-4.3909873356e-02
0.435929          	-4.4594002711e-02
0.436336          	-4.3223386973e-02
0.436794          	-4.3920616206e-02
0.437329          	-4.4941104243e-02
0.437997          	-4.6684077946e-02
0.438497          	-4.4467204394e-02
0.438873          	-4.2791527330e-02
0.439249          	-4.2801315756e-02
0.439624          	-4.2806257023e-02
0.44              	-4.2811035435e-02
0.440435          	-4.3621171320e-02
0.440842          	-4.3252318435e-02
0.441218          	-4.2820710042e-02
0.441635          	-4.3396825429e-02
0.442106          	-4.4123620194e-02
0.44259           	-4.4292874395e-02
0.443048          	-4.3949108758e-02
0.443462          	-4.3345511839e-02
0.443934          	-4.4152397918e-02
0.44447           	-4.4994778792e-02
0.444926          	-4.3930341534e-02
0.445446          	-4.4783857206e-02
0.446028          	-4.5605548610e-02
0.446494          	-4.4041400413e-02
0.447013          	-4.4770765618e-02
0.447533          	-4.4764928862e-02
0.4481            	-4.5390489808e-02
0.448525          	-4.3485045021e-02
0.449003          	-4.4213104456e-02
0.449526          	-4.4820370823e-02
0.450003          	-4.4177985897e-02
0.450457          	-4.3890272068e-02
0.450959          	-4.4536830693e-02
0.451435          	-4.4178074630e-02
0.45197           	-4.4976610080e-02
0.452472          	-4.4522874087e-02
0.453051          	-4.5550331863e-02
0.45346           	-4.3259582077e-02
0.453869          	-4.3270919548e-02
0.45434           	-4.4126861714e-02
0.454812          	-4.4124083927e-02
0.455331          	-4.4757762313e-02
0.45585           	-4.4752264604e-02
0.456311          	-4.3977481362e-02
0.456838          	-4.4865738610e-02
0.45729           	-4.3849001536e-02
0.457741          	-4.3854838430e-02
0.458193          	-4.3856715450e-02
0.458494          	-4.1795675592e-02
0.458871          	-4.2845658366e-02
0.459247          	-4.2846862055e-02
0.459624          	-4.2851052908e-02
0.46              	-4.2855142410e-02
0.460426          	-4.3532019019e-02
0.460903          	-4.4237057854e-02
0.461433          	-4.4946895612e-02
0.461964          	-4.4938622395e-02
0.462565          	-4.5873437335e-02
0.462894          	-4.2185767210e-02
0.463266          	-4.2791612554e-02
0.463684          	-4.3432001105e-02
0.464125          	-4.3741083081e-02